# vtk DataFile Version 3.0
graph2vtk_edges
ASCII
DATASET POLYDATA
POINTS 2208 float 
1.000000 1.000000 0.000000
1.000000 2.000000 0.000000
1.000000 2.000000 0.000000
1.000000 3.000000 0.000000
1.000000 3.000000 0.000000
1.000000 4.000000 0.000000
1.000000 4.000000 0.000000
1.000000 5.000000 0.000000
1.000000 5.000000 0.000000
1.000000 6.000000 0.000000
1.000000 6.000000 0.000000
1.000000 7.000000 0.000000
1.000000 7.000000 0.000000
1.000000 8.000000 0.000000
1.000000 8.000000 0.000000
1.000000 9.000000 0.000000
1.000000 9.000000 0.000000
1.000000 10.000000 0.000000
1.000000 10.000000 0.000000
1.000000 11.000000 0.000000
1.000000 11.000000 0.000000
1.000000 12.000000 0.000000
1.000000 12.000000 0.000000
1.000000 13.000000 0.000000
1.000000 13.000000 0.000000
1.000000 14.000000 0.000000
1.000000 14.000000 0.000000
1.000000 15.000000 0.000000
1.000000 15.000000 0.000000
1.000000 16.000000 0.000000
1.000000 16.000000 0.000000
1.000000 17.000000 0.000000
1.000000 17.000000 0.000000
1.000000 18.000000 0.000000
1.000000 18.000000 0.000000
1.000000 19.000000 0.000000
1.000000 19.000000 0.000000
1.000000 20.000000 0.000000
1.000000 20.000000 0.000000
1.000000 21.000000 0.000000
1.000000 21.000000 0.000000
1.000000 22.000000 0.000000
1.000000 22.000000 0.000000
1.000000 23.000000 0.000000
1.000000 23.000000 0.000000
1.000000 24.000000 0.000000
1.000000 1.000000 0.000000
2.000000 1.000000 0.000000
1.000000 2.000000 0.000000
2.000000 2.000000 0.000000
2.000000 1.000000 0.000000
2.000000 2.000000 0.000000
1.000000 3.000000 0.000000
2.000000 3.000000 0.000000
2.000000 2.000000 0.000000
2.000000 3.000000 0.000000
1.000000 4.000000 0.000000
2.000000 4.000000 0.000000
2.000000 3.000000 0.000000
2.000000 4.000000 0.000000
1.000000 5.000000 0.000000
2.000000 5.000000 0.000000
2.000000 4.000000 0.000000
2.000000 5.000000 0.000000
1.000000 6.000000 0.000000
2.000000 6.000000 0.000000
2.000000 5.000000 0.000000
2.000000 6.000000 0.000000
1.000000 7.000000 0.000000
2.000000 7.000000 0.000000
2.000000 6.000000 0.000000
2.000000 7.000000 0.000000
1.000000 8.000000 0.000000
2.000000 8.000000 0.000000
2.000000 7.000000 0.000000
2.000000 8.000000 0.000000
1.000000 9.000000 0.000000
2.000000 9.000000 0.000000
2.000000 8.000000 0.000000
2.000000 9.000000 0.000000
1.000000 10.000000 0.000000
2.000000 10.000000 0.000000
2.000000 9.000000 0.000000
2.000000 10.000000 0.000000
1.000000 11.000000 0.000000
2.000000 11.000000 0.000000
2.000000 10.000000 0.000000
2.000000 11.000000 0.000000
1.000000 12.000000 0.000000
2.000000 12.000000 0.000000
2.000000 11.000000 0.000000
2.000000 12.000000 0.000000
1.000000 13.000000 0.000000
2.000000 13.000000 0.000000
2.000000 12.000000 0.000000
2.000000 13.000000 0.000000
1.000000 14.000000 0.000000
2.000000 14.000000 0.000000
2.000000 13.000000 0.000000
2.000000 14.000000 0.000000
1.000000 15.000000 0.000000
2.000000 15.000000 0.000000
2.000000 14.000000 0.000000
2.000000 15.000000 0.000000
1.000000 16.000000 0.000000
2.000000 16.000000 0.000000
2.000000 15.000000 0.000000
2.000000 16.000000 0.000000
1.000000 17.000000 0.000000
2.000000 17.000000 0.000000
2.000000 16.000000 0.000000
2.000000 17.000000 0.000000
1.000000 18.000000 0.000000
2.000000 18.000000 0.000000
2.000000 17.000000 0.000000
2.000000 18.000000 0.000000
1.000000 19.000000 0.000000
2.000000 19.000000 0.000000
2.000000 18.000000 0.000000
2.000000 19.000000 0.000000
1.000000 20.000000 0.000000
2.000000 20.000000 0.000000
2.000000 19.000000 0.000000
2.000000 20.000000 0.000000
1.000000 21.000000 0.000000
2.000000 21.000000 0.000000
2.000000 20.000000 0.000000
2.000000 21.000000 0.000000
1.000000 22.000000 0.000000
2.000000 22.000000 0.000000
2.000000 21.000000 0.000000
2.000000 22.000000 0.000000
1.000000 23.000000 0.000000
2.000000 23.000000 0.000000
2.000000 22.000000 0.000000
2.000000 23.000000 0.000000
1.000000 24.000000 0.000000
2.000000 24.000000 0.000000
2.000000 23.000000 0.000000
2.000000 24.000000 0.000000
2.000000 1.000000 0.000000
3.000000 1.000000 0.000000
2.000000 2.000000 0.000000
3.000000 2.000000 0.000000
3.000000 1.000000 0.000000
3.000000 2.000000 0.000000
2.000000 3.000000 0.000000
3.000000 3.000000 0.000000
3.000000 2.000000 0.000000
3.000000 3.000000 0.000000
2.000000 4.000000 0.000000
3.000000 4.000000 0.000000
3.000000 3.000000 0.000000
3.000000 4.000000 0.000000
2.000000 5.000000 0.000000
3.000000 5.000000 0.000000
3.000000 4.000000 0.000000
3.000000 5.000000 0.000000
2.000000 6.000000 0.000000
3.000000 6.000000 0.000000
3.000000 5.000000 0.000000
3.000000 6.000000 0.000000
2.000000 7.000000 0.000000
3.000000 7.000000 0.000000
3.000000 6.000000 0.000000
3.000000 7.000000 0.000000
2.000000 8.000000 0.000000
3.000000 8.000000 0.000000
3.000000 7.000000 0.000000
3.000000 8.000000 0.000000
2.000000 9.000000 0.000000
3.000000 9.000000 0.000000
3.000000 8.000000 0.000000
3.000000 9.000000 0.000000
2.000000 10.000000 0.000000
3.000000 10.000000 0.000000
3.000000 9.000000 0.000000
3.000000 10.000000 0.000000
2.000000 11.000000 0.000000
3.000000 11.000000 0.000000
3.000000 10.000000 0.000000
3.000000 11.000000 0.000000
2.000000 12.000000 0.000000
3.000000 12.000000 0.000000
3.000000 11.000000 0.000000
3.000000 12.000000 0.000000
2.000000 13.000000 0.000000
3.000000 13.000000 0.000000
3.000000 12.000000 0.000000
3.000000 13.000000 0.000000
2.000000 14.000000 0.000000
3.000000 14.000000 0.000000
3.000000 13.000000 0.000000
3.000000 14.000000 0.000000
2.000000 15.000000 0.000000
3.000000 15.000000 0.000000
3.000000 14.000000 0.000000
3.000000 15.000000 0.000000
2.000000 16.000000 0.000000
3.000000 16.000000 0.000000
3.000000 15.000000 0.000000
3.000000 16.000000 0.000000
2.000000 17.000000 0.000000
3.000000 17.000000 0.000000
3.000000 16.000000 0.000000
3.000000 17.000000 0.000000
2.000000 18.000000 0.000000
3.000000 18.000000 0.000000
3.000000 17.000000 0.000000
3.000000 18.000000 0.000000
2.000000 19.000000 0.000000
3.000000 19.000000 0.000000
3.000000 18.000000 0.000000
3.000000 19.000000 0.000000
2.000000 20.000000 0.000000
3.000000 20.000000 0.000000
3.000000 19.000000 0.000000
3.000000 20.000000 0.000000
2.000000 21.000000 0.000000
3.000000 21.000000 0.000000
3.000000 20.000000 0.000000
3.000000 21.000000 0.000000
2.000000 22.000000 0.000000
3.000000 22.000000 0.000000
3.000000 21.000000 0.000000
3.000000 22.000000 0.000000
2.000000 23.000000 0.000000
3.000000 23.000000 0.000000
3.000000 22.000000 0.000000
3.000000 23.000000 0.000000
2.000000 24.000000 0.000000
3.000000 24.000000 0.000000
3.000000 23.000000 0.000000
3.000000 24.000000 0.000000
3.000000 1.000000 0.000000
4.000000 1.000000 0.000000
3.000000 2.000000 0.000000
4.000000 2.000000 0.000000
4.000000 1.000000 0.000000
4.000000 2.000000 0.000000
3.000000 3.000000 0.000000
4.000000 3.000000 0.000000
4.000000 2.000000 0.000000
4.000000 3.000000 0.000000
3.000000 4.000000 0.000000
4.000000 4.000000 0.000000
4.000000 3.000000 0.000000
4.000000 4.000000 0.000000
3.000000 5.000000 0.000000
4.000000 5.000000 0.000000
4.000000 4.000000 0.000000
4.000000 5.000000 0.000000
3.000000 6.000000 0.000000
4.000000 6.000000 0.000000
4.000000 5.000000 0.000000
4.000000 6.000000 0.000000
3.000000 7.000000 0.000000
4.000000 7.000000 0.000000
4.000000 6.000000 0.000000
4.000000 7.000000 0.000000
3.000000 8.000000 0.000000
4.000000 8.000000 0.000000
4.000000 7.000000 0.000000
4.000000 8.000000 0.000000
3.000000 9.000000 0.000000
4.000000 9.000000 0.000000
4.000000 8.000000 0.000000
4.000000 9.000000 0.000000
3.000000 10.000000 0.000000
4.000000 10.000000 0.000000
4.000000 9.000000 0.000000
4.000000 10.000000 0.000000
3.000000 11.000000 0.000000
4.000000 11.000000 0.000000
4.000000 10.000000 0.000000
4.000000 11.000000 0.000000
3.000000 12.000000 0.000000
4.000000 12.000000 0.000000
4.000000 11.000000 0.000000
4.000000 12.000000 0.000000
3.000000 13.000000 0.000000
4.000000 13.000000 0.000000
4.000000 12.000000 0.000000
4.000000 13.000000 0.000000
3.000000 14.000000 0.000000
4.000000 14.000000 0.000000
4.000000 13.000000 0.000000
4.000000 14.000000 0.000000
3.000000 15.000000 0.000000
4.000000 15.000000 0.000000
4.000000 14.000000 0.000000
4.000000 15.000000 0.000000
3.000000 16.000000 0.000000
4.000000 16.000000 0.000000
4.000000 15.000000 0.000000
4.000000 16.000000 0.000000
3.000000 17.000000 0.000000
4.000000 17.000000 0.000000
4.000000 16.000000 0.000000
4.000000 17.000000 0.000000
3.000000 18.000000 0.000000
4.000000 18.000000 0.000000
4.000000 17.000000 0.000000
4.000000 18.000000 0.000000
3.000000 19.000000 0.000000
4.000000 19.000000 0.000000
4.000000 18.000000 0.000000
4.000000 19.000000 0.000000
3.000000 20.000000 0.000000
4.000000 20.000000 0.000000
4.000000 19.000000 0.000000
4.000000 20.000000 0.000000
3.000000 21.000000 0.000000
4.000000 21.000000 0.000000
4.000000 20.000000 0.000000
4.000000 21.000000 0.000000
3.000000 22.000000 0.000000
4.000000 22.000000 0.000000
4.000000 21.000000 0.000000
4.000000 22.000000 0.000000
3.000000 23.000000 0.000000
4.000000 23.000000 0.000000
4.000000 22.000000 0.000000
4.000000 23.000000 0.000000
3.000000 24.000000 0.000000
4.000000 24.000000 0.000000
4.000000 23.000000 0.000000
4.000000 24.000000 0.000000
4.000000 1.000000 0.000000
5.000000 1.000000 0.000000
4.000000 2.000000 0.000000
5.000000 2.000000 0.000000
5.000000 1.000000 0.000000
5.000000 2.000000 0.000000
4.000000 3.000000 0.000000
5.000000 3.000000 0.000000
5.000000 2.000000 0.000000
5.000000 3.000000 0.000000
4.000000 4.000000 0.000000
5.000000 4.000000 0.000000
5.000000 3.000000 0.000000
5.000000 4.000000 0.000000
4.000000 5.000000 0.000000
5.000000 5.000000 0.000000
5.000000 4.000000 0.000000
5.000000 5.000000 0.000000
4.000000 6.000000 0.000000
5.000000 6.000000 0.000000
5.000000 5.000000 0.000000
5.000000 6.000000 0.000000
4.000000 7.000000 0.000000
5.000000 7.000000 0.000000
5.000000 6.000000 0.000000
5.000000 7.000000 0.000000
4.000000 8.000000 0.000000
5.000000 8.000000 0.000000
5.000000 7.000000 0.000000
5.000000 8.000000 0.000000
4.000000 9.000000 0.000000
[...]
POINT_DATA 2208
SCALARS connectivity float
LOOKUP_TABLE default
4.567435
4.567435
5.125332
5.125332
3.853529
3.853529
6.189164
6.189164
5.327292
5.327292
4.813291
4.813291
4.411683
4.411683
4.863604
4.863604
6.066768
6.066768
4.904352
4.904352
5.294411
5.294411
5.714325
5.714325
4.308224
4.308224
6.254001
6.254001
3.559036
3.559036
4.600114
4.600114
5.815622
5.815622
6.290250
6.290250
6.190838
6.190838
4.980210
4.980210
3.395914
3.395914
3.943527
3.943527
4.194910
4.194910
3.334416
3.334416
5.287676
5.287676
4.078098
4.078098
6.190915
6.190915
4.940812
4.940812
4.962367
4.962367
5.614463
5.614463
5.174639
5.174639
6.692430
6.692430
5.725791
5.725791
4.356405
4.356405
7.183186
7.183186
3.990884
3.990884
5.113931
5.113931
4.951779
4.951779
5.059281
5.059281
4.682141
4.682141
4.167651
4.167651
3.126010
3.126010
3.663818
3.663818
5.895638
5.895638
6.623562
6.623562
5.577857
5.577857
5.857997
5.857997
5.677089
5.677089
3.406270
3.406270
4.744355
4.744355
5.571148
5.571148
4.704113
4.704113
5.689997
5.689997
4.765996
4.765996
5.711908
5.711908
5.314809
5.314809
5.668601
5.668601
4.649025
4.649025
3.797543
3.797543
5.799049
5.799049
4.843283
4.843283
4.007908
4.007908
5.257304
5.257304
5.237882
5.237882
6.415141
6.415141
4.257955
4.257955
5.528743
5.528743
4.868500
4.868500
5.219321
5.219321
5.087987
5.087987
2.829326
2.829326
3.989366
3.989366
5.443653
5.443653
5.507741
5.507741
5.781182
5.781182
5.591283
5.591283
4.178286
4.178286
5.380337
5.380337
3.812223
3.812223
4.980489
4.980489
5.986337
5.986337
5.000043
5.000043
5.327368
5.327368
6.095004
6.095004
5.021466
5.021466
5.428183
5.428183
4.052854
4.052854
5.730957
5.730957
3.814114
3.814114
5.040314
5.040314
6.472480
6.472480
5.568900
5.568900
3.782683
3.782683
4.622531
4.622531
3.871656
3.871656
3.524865
3.524865
4.738898
4.738898
5.118445
5.118445
5.128644
5.128644
6.443508
6.443508
3.832181
3.832181
5.623234
5.623234
4.737560
4.737560
5.940890
5.940890
3.680563
3.680563
5.212035
5.212035
5.011245
5.011245
3.992237
3.992237
5.805729
5.805729
6.082295
6.082295
4.010240
4.010240
5.389880
5.389880
5.289502
5.289502
4.364535
4.364535
6.138028
6.138028
4.440427
4.440427
3.708064
3.708064
4.050096
4.050096
5.568961
5.568961
4.156372
4.156372
4.734393
4.734393
6.488490
6.488490
2.797679
2.797679
4.153242
4.153242
4.481365
4.481365
5.663024
5.663024
5.234057
5.234057
3.798685
3.798685
3.996056
3.996056
4.934706
4.934706
4.625571
4.625571
4.404509
4.404509
3.944097
3.944097
4.565248
4.565248
5.055744
5.055744
6.535152
6.535152
4.958773
4.958773
3.652637
3.652637
3.650722
3.650722
4.096433
4.096433
5.953465
5.953465
4.372469
4.372469
5.656468
5.656468
5.552884
5.552884
4.539395
4.539395
2.945675
2.945675
3.786848
3.786848
6.592941
6.592941
5.931218
5.931218
3.419598
3.419598
4.354854
4.354854
4.318343
4.318343
5.231626
5.231626
3.765647
3.765647
6.339586
6.339586
4.570697
4.570697
6.478917
6.478917
4.632126
4.632126
4.315861
4.315861
5.370961
5.370961
4.927074
4.927074
7.112160
7.112160
4.669401
4.669401
3.977390
3.977390
5.497770
5.497770
4.453524
4.453524
3.618734
3.618734
4.753663
4.753663
6.553243
6.553243
4.145803
4.145803
6.957385
6.957385
4.880131
4.880131
6.864529
6.864529
5.485296
5.485296
3.860221
3.860221
4.850332
4.850332
6.190245
6.190245
4.920670
4.920670
5.635274
5.635274
4.393517
4.393517
5.551185
5.551185
5.469383
5.469383
5.085991
5.085991
5.035880
5.035880
4.506912
4.506912
5.535398
5.535398
4.678995
4.678995
4.796310
4.796310
4.368720
4.368720
5.132561
5.132561
3.768363
3.768363
6.018412
6.018412
4.886776
4.886776
4.921338
4.921338
5.944200
5.944200
3.975447
3.975447
4.355321
4.355321
5.288807
5.288807
3.981863
3.981863
5.055801
5.055801
6.521013
6.521013
4.535027
4.535027
6.227448
6.227448
5.728283
5.728283
5.007524
5.007524
3.642702
3.642702
5.586939
5.586939
6.037834
6.037834
5.480136
5.480136
4.610200
4.610200
4.921679
4.921679
5.315543
5.315543
5.707894
5.707894
5.524639
5.524639
5.504542
5.504542
5.913141
5.913141
4.660188
4.660188
3.892930
3.892930
4.788877
4.788877
4.994995
4.994995
3.883791
3.883791
6.276452
6.276452
4.398588
4.398588
4.477441
4.477441
3.900160
3.900160
4.192351
4.192351
2.995437
2.995437
2.635410
2.635410
5.462048
5.462048
5.218899
5.218899
6.236556
6.236556
6.213444
6.213444
2.674789
2.674789
4.866866
4.866866
6.055648
6.055648
3.336394
3.336394
5.379224
5.379224
5.280880
5.280880
2.879573
2.879573
3.666469
3.666469
4.295698
4.295698
4.287915
4.287915
4.817918
4.817918
4.999183
4.999183
4.961561
4.961561
5.396575
5.396575
4.303795
4.303795
3.335989
3.335989
4.217107
4.217107
5.243095
5.243095
4.748793
4.748793
4.652817
4.652817
5.668155
5.668155
3.825440
3.825440
5.889173
5.889173
4.598333
4.598333
7.309287
7.309287
4.883882
4.883882
4.988213
4.988213
5.055941
5.055941
3.482461
3.482461
5.485498
5.485498
5.071373
5.071373
4.723782
4.723782
5.499826
5.499826
6.863401
6.863401
4.452184
4.452184
5.103424
5.103424
4.986823
4.986823
5.680439
5.680439
7.136308
7.136308
5.990115
5.990115
3.590472
3.590472
5.261662
5.261662
5.325546
5.325546
4.725333
4.725333
5.620350
5.620350
3.729500
3.729500
4.103957
4.103957
4.296446
4.296446
4.860960
4.860960
4.458791
4.458791
6.183720
6.183720
6.072686
6.072686
5.536219
5.536219
4.988714
4.988714
4.344441
4.344441
4.750564
4.750564
5.106814
5.106814
4.735987
4.735987
4.724894
4.724894
3.971025
3.971025
6.508526
6.508526
3.743410
3.743410
3.319457
3.319457
4.058628
4.058628
4.814183
4.814183
3.978858
3.978858
5.836950
5.836950
5.173666
5.173666
4.278510
4.278510
6.064119
6.064119
4.979536
4.979536
4.754614
4.754614
6.058295
6.058295
5.009734
5.009734
5.316536
5.316536
5.697348
5.697348
6.278084
6.278084
5.636345
5.636345
5.260808
5.260808
5.327098
5.327098
4.419736
4.419736
4.850673
4.850673
4.742383
4.742383
5.473286
5.473286
6.770101
6.770101
4.408896
4.408896
3.880960
3.880960
3.919338
3.919338
6.269782
6.269782
5.379345
5.379345
5.135175
5.135175
4.500102
4.500102
3.836605
3.836605
4.825240
4.825240
4.984570
4.984570
6.292548
6.292548
4.283571
4.283571
6.280941
6.280941
5.314363
5.314363
3.881283
3.881283
6.848216
6.848216
5.041200
5.041200
7.212554
7.212554
4.910871
4.910871
3.054921
3.054921
6.083918
6.083918
4.426466
4.426466
4.311511
4.311511
5.008934
5.008934
4.090757
4.090757
4.277729
4.277729
4.493837
4.493837
4.798819
4.798819
5.080901
5.080901
5.278890
5.278890
3.875482
3.875482
5.621673
5.621673
6.937459
6.937459
3.249385
3.249385
3.744060
3.744060
5.811486
5.811486
6.310080
6.310080
5.307499
5.307499
4.327007
4.327007
4.022352
4.022352
2.550982
2.550982
6.082092
6.082092
5.116946
5.116946
5.229288
5.229288
4.345292
4.345292
5.701672
5.701672
4.952269
4.952269
6.862480
6.862480
4.669639
4.669639
3.772434
3.772434
4.964021
4.964021
6.340929
6.340929
4.042735
4.042735
5.393059
5.393059
5.440910
5.440910
5.227859
5.227859
4.502270
4.502270
4.363210
4.363210
5.807650
5.807650
4.814379
4.814379
4.243791
4.243791
4.928461
4.928461
2.991150
2.991150
6.373275
6.373275
4.018809
4.018809
4.457983
4.457983
6.339479
6.339479
5.825215
5.825215
4.587142
4.587142
5.671634
5.671634
6.619748
6.619748
5.856352
5.856352
3.918944
3.918944
5.624975
5.624975
6.735676
6.735676
6.535670
6.535670
6.635068
6.635068
3.082864
3.082864
4.786462
4.786462
6.274351
6.274351
4.801068
4.801068
6.380782
6.380782
4.427675
4.427675
4.553191
4.553191
2.694395
2.694395
7.372648
7.372648
5.390798
5.390798
4.733377
4.733377
4.594023
4.594023
4.512410
4.512410
5.221373
5.221373
6.106851
6.106851
4.160714
4.160714
4.330115
4.330115
5.755913
5.755913
5.388083
5.388083
3.654587
3.654587
3.292666
3.292666
5.032736
5.032736
5.685633
5.685633
3.791009
3.791009
3.997394
3.997394
4.232701
4.232701
3.945967
3.945967
4.022943
4.022943
5.279198
5.279198
2.620828
2.620828
5.179841
5.179841
5.257346
5.257346
6.634191
6.634191
4.832385
4.832385
5.230761
5.230761
5.168488
5.168488
4.491922
4.491922
4.294924
4.294924
5.268503
5.268503
4.579078
4.579078
3.952662
3.952662
4.040503
4.040503
5.434426
5.434426
5.744538
5.744538
5.469940
5.469940
5.139062
5.139062
5.638542
5.638542
4.924541
4.924541
6.319843
6.319843
2.922365
2.922365
4.090571
4.090571
6.393341
6.393341
6.788730
6.788730
5.020324
5.020324
4.338557
4.338557
3.465105
3.465105
4.616484
4.616484
3.625521
3.625521
5.055388
5.055388
4.791357
4.791357
2.479996
2.479996
5.375734
5.375734
3.991936
3.991936
6.481876
6.481876
2.576043
2.576043
6.870453
6.870453
5.058070
5.058070
4.217368
4.217368
4.797082
4.797082
4.892800
4.892800
3.873648
3.873648
4.036012
4.036012
5.366614
5.366614
4.161812
4.161812
6.537409
6.537409
4.816166
4.816166
3.137233
3.137233
4.883011
4.883011
4.347926
4.347926
4.498794
4.498794
4.779368
4.779368
5.508165
5.508165
4.266338
4.266338
5.229133
5.229133
3.555996
3.555996
4.853957
4.853957
3.676497
3.676497
4.109504
4.109504
4.853885
4.853885
4.763856
4.763856
4.923367
4.923367
4.641428
4.641428
6.621972
6.621972
4.856454
4.856454
5.091814
5.091814
5.651804
5.651804
4.538663
4.538663
4.622866
4.622866
4.625470
4.625470
5.248958
5.248958
4.471520
4.471520
5.753225
5.753225
6.253769
6.253769
-0.292764
-0.292764
5.584856
5.584856
0.766191
0.766191
5.944285
5.944285
0.326887
0.326887
4.776169
4.776169
0.679387
0.679387
4.575386
4.575386
1.001630
1.001630
3.486923
3.486923
0.044151
0.044151
4.184998
4.184998
0.226708
0.226708
4.413893
4.413893
1.215912
1.215912
5.140072
5.140072
0.912228
0.912228
4.545807
4.545807
-0.335955
-0.335955
5.103318
5.103318
0.932111
0.932111
4.720957
4.720957
-1.498605
-1.498605
4.935466
4.935466
0.553025
0.553025
5.612340
5.612340
1.577524
1.577524
4.338423
4.338423
0.795155
0.795155
5.248085
5.248085
-1.263121
-1.263121
6.738170
6.738170
-1.392632
-1.392632
5.626436
5.626436
-0.605022
-0.605022
4.192393
4.192393
0.558543
0.558543
3.594031
3.594031
-1.293685
-1.293685
4.529089
4.529089
-0.986520
-0.986520
6.751296
6.751296
-2.414591
-2.414591
0.064989
0.064989
0.082823
0.082823
0.329648
0.329648
2.236850
2.236850
0.147175
0.147175
0.863304
0.863304
-2.634981
-2.634981
0.554758
0.554758
-0.876310
-0.876310
1.259365
1.259365
-0.327578
-0.327578
-0.314138
-0.314138
0.580053
0.580053
0.996692
0.996692
-0.350885
-0.350885
-0.542702
-0.542702
1.578299
1.578299
-0.172141
-0.172141
-0.025931
-0.025931
0.541487
0.541487
0.750834
0.750834
-0.570253
-0.570253
-0.517261
-0.517261
-0.050346
-0.050346
-0.753371
-0.753371
0.083498
0.083498
-0.248520
-0.248520
-0.330774
-0.330774
-1.258415
-1.258415
-0.784800
-0.784800
2.690277
2.690277
0.666655
0.666655
-1.422803
-1.422803
-1.300562
-1.300562
-1.435773
-1.435773
-1.488565
-1.488565
-1.693073
-1.693073
-0.277354
-0.277354
1.141773
1.141773
-0.888435
-0.888435
1.383630
1.383630
-0.071618
-0.071618
0.442663
0.442663
-0.694349
-0.694349
-1.074086
-1.074086
-1.391389
-1.391389
0.762863
0.762863
0.598544
0.598544
-0.101439
-0.101439
0.778175
0.778175
0.028053
0.028053
0.524487
0.524487
-0.265477
-0.265477
0.482039
0.482039
-1.158247
-1.158247
0.751999
0.751999
0.239756
0.239756
-0.816228
-0.816228
0.892098
0.892098
0.080153
0.080153
-1.108174
-1.108174
0.635739
0.635739
-1.110628
-1.110628
0.593634
0.593634
0.500167
0.500167
0.105254
0.105254
-0.559209
-0.559209
0.870907
0.870907
0.925813
0.925813
0.075474
0.075474
-0.149835
-0.149835
-0.685484
-0.685484
0.312620
0.312620
-1.188346
-1.188346
0.289696
0.289696
0.102452
0.102452
0.246786
0.246786
-2.247582
-2.247582
0.148573
0.148573
0.249243
0.249243
0.719188
0.719188
0.179197
0.179197
1.551936
1.551936
-1.603310
-1.603310
-0.758092
-0.758092
-0.131135
-0.131135
0.911098
0.911098
0.598751
0.598751
0.201762
0.201762
0.325292
0.325292
-1.288187
-1.288187
-0.322449
-0.322449
-0.952962
-0.952962
-0.953371
-0.953371
-0.006331
-0.006331
1.364272
1.364272
-0.578532
-0.578532
-0.787066
-0.787066
0.722864
0.722864
-0.166888
-0.166888
1.541279
1.541279
2.094065
2.094065
-1.033741
-1.033741
-0.937295
-0.937295
2.176426
2.176426
1.682028
1.682028
-0.443765
-0.443765
0.790153
0.790153
-0.315671
-0.315671
-0.158579
-0.158579
0.018295
0.018295
-0.194759
-0.194759
0.702341
0.702341
-0.526635
-0.526635
-0.113690
-0.113690
-0.268388
-0.268388
-0.799410
-0.799410
0.248579
0.248579
-0.089463
-0.089463
-0.041007
-0.041007
0.937538
0.937538
-0.510776
-0.510776
-0.710702
-0.710702
0.369197
0.369197
1.065437
1.065437
-0.037283
-0.037283
-1.725773
-1.725773
0.339372
0.339372
1.441867
1.441867
0.485190
0.485190
0.138665
0.138665
-0.086031
-0.086031
-0.752251
-0.752251
-0.335143
-0.335143
1.150754
1.150754
-0.382374
-0.382374
0.806158
0.806158
0.233576
0.233576
-0.373461
-0.373461
1.235245
1.235245
0.286866
0.286866
-0.501537
-0.501537
0.039498
0.039498
2.015666
2.015666
-1.701053
-1.701053
2.628909
2.628909
-0.763708
-0.763708
0.173276
0.173276
0.431612
0.431612
-0.178553
-0.178553
0.029996
0.029996
1.431962
1.431962
0.977846
0.977846
0.807542
0.807542
0.817963
0.817963
0.743514
0.743514
-0.231271
-0.231271
-0.829901
-0.829901
0.127941
0.127941
1.032848
1.032848
-0.238612
-0.238612
0.362114
0.362114
-1.023264
-1.023264
-1.227636
-1.227636
-1.131719
-1.131719
-0.160435
-0.160435
-1.169501
-1.169501
-1.954213
-1.954213
-0.680394
-0.680394
-0.005579
-0.005579
0.813200
0.813200
1.263077
1.263077
0.672272
0.672272
-2.063925
-2.063925
-0.859534
-0.859534
1.487614
1.487614
1.229615
1.229615
0.161981
0.161981
-0.608025
-0.608025
0.173576
0.173576
0.217133
0.217133
0.182294
0.182294
-0.832030
-0.832030
0.508035
0.508035
-1.818892
-1.818892
0.280104
0.280104
-1.573051
-1.573051
-0.944087
-0.944087
-0.071982
-0.071982
-0.243317
-0.243317
-0.894709
-0.894709
0.923207
0.923207
0.109537
0.109537
-0.521705
-0.521705
0.411079
0.411079
-0.870117
-0.870117
0.383806
0.383806
-0.510635
-0.510635
-0.510786
-0.510786
0.847898
0.847898
-0.597825
-0.597825
0.532994
0.532994
0.419443
0.419443
-1.052024
-1.052024
0.771214
0.771214
-0.036787
-0.036787
0.285430
0.285430
-0.275099
-0.275099
-0.008122
-0.008122
-1.083575
-1.083575
0.774788
0.774788
-0.909487
-0.909487
1.231503
1.231503
-1.723490
-1.723490
-1.654548
-1.654548
-0.600433
-0.600433
0.685236
0.685236
0.110911
0.110911
-0.606726
-0.606726
0.053002
0.053002
0.020049
0.020049
-0.026878
-0.026878
-1.341050
-1.341050
0.882168
0.882168
-1.633974
-1.633974
0.755295
0.755295
0.293781
0.293781
0.131880
0.131880
-1.130341
-1.130341
-0.982848
-0.982848
-0.582536
-0.582536
-0.013058
-0.013058
0.248601
0.248601
0.354345
0.354345
0.313509
0.313509
0.812111
0.812111
2.731644
2.731644
0.343471
0.343471
-1.306862
-1.306862
-0.691940
-0.691940
0.499504
0.499504
-1.072541
-1.072541
0.234922
0.234922
-2.123092
-2.123092
0.020771
0.020771
-0.733323
-0.733323
1.191104
1.191104
0.151842
0.151842
-2.644222
-2.644222
0.970761
0.970761
0.826093
0.826093
1.013492
1.013492
0.858438
0.858438
0.068948
0.068948
1.305945
1.305945
1.116326
1.116326
0.958564
0.958564
-0.287674
-0.287674
-0.990396
-0.990396
-0.685868
-0.685868
-0.974870
-0.974870
-0.997722
-0.997722
0.686794
0.686794
1.107078
1.107078
1.063801
1.063801
0.164976
0.164976
0.479510
0.479510
1.215981
1.215981
-1.442665
-1.442665
-1.025137
-1.025137
-0.140364
-0.140364
0.588882
0.588882
-0.292538
-0.292538
2.495318
2.495318
-0.896348
-0.896348
-0.850954
-0.850954
-1.489663
-1.489663
0.700242
0.700242
-2.025084
-2.025084
-1.712909
-1.712909
0.528990
0.528990
-1.609847
-1.609847
0.758193
0.758193
0.680179
0.680179
0.385469
0.385469
0.899772
0.899772
0.818297
0.818297
0.284712
0.284712
-0.926012
-0.926012
-0.773376
-0.773376
-0.803030
-0.803030
-0.336843
-0.336843
-0.901401
-0.901401
-0.107236
-0.107236
0.554159
0.554159
-0.475347
-0.475347
0.061795
0.061795
0.398592
0.398592
0.199014
0.199014
0.620451
0.620451
2.080730
2.080730
-1.371773
-1.371773
0.339022
0.339022
0.331685
0.331685
0.662261
0.662261
0.291418
0.291418
0.887752
0.887752
0.244959
0.244959
0.848821
0.848821
0.406231
0.406231
1.321918
1.321918
1.448424
1.448424
1.317053
1.317053
0.205418
0.205418
-1.429637
-1.429637
-0.264024
-0.264024
-0.504968
-0.504968
0.855948
0.855948
-0.417472
-0.417472
0.811879
0.811879
0.720777
0.720777
0.759938
0.759938
0.882845
0.882845
1.537021
1.537021
-0.145541
-0.145541
1.109526
1.109526
0.289161
0.289161
-1.109704
-1.109704
0.805729
0.805729
0.965231
0.965231
0.037049
0.037049
-0.222178
-0.222178
-0.111919
-0.111919
-0.300140
-0.300140
-1.665006
-1.665006
-0.179356
-0.179356
0.588350
0.588350
1.395346
1.395346
-0.415173
-0.415173
0.565384
0.565384
0.457432
0.457432
0.833869
0.833869
0.257558
0.257558
1.097644
1.097644
-2.277237
-2.277237
-1.614573
-1.614573
0.289894
0.289894
0.207405
0.207405
-0.580860
-0.580860
-1.006073
-1.006073
0.171871
0.171871
1.399453
1.399453
0.963769
0.963769
0.032716
0.032716
-0.064345
-0.064345
0.896816
0.896816
0.228017
0.228017
-1.619146
-1.619146
-0.149701
-0.149701
0.428707
0.428707
-1.729141
-1.729141
0.564926
0.564926
-0.614969
-0.614969
0.460268
0.460268
0.339364
0.339364
0.379847
0.379847
0.284245
0.284245
-0.347243
-0.347243
-0.089646
-0.089646
-1.590240
-1.590240
1.164831
1.164831
-1.077601
-1.077601
-1.355643
-1.355643
1.729481
1.729481
0.120893
0.120893
-0.747897
-0.747897
0.571732
0.571732
1.134277
1.134277
-0.853275
-0.853275
-1.467067
-1.467067
0.109764
0.109764
0.440836
0.440836
-0.683124
-0.683124
-0.693623
-0.693623
0.654790
0.654790
-2.237378
-2.237378
-0.597539
-0.597539
-0.001617
-0.001617
0.983372
0.983372
-1.228727
-1.228727
1.427402
1.427402
0.220942
0.220942
0.326823
0.326823
-0.453067
-0.453067
-1.499763
-1.499763
-0.461964
-0.461964
-0.021037
-0.021037
0.798783
0.798783
-1.008196
-1.008196
0.137892
0.137892
0.558177
0.558177
-1.646606
-1.646606
-0.775481
-0.775481
-0.737231
-0.737231
1.534976
1.534976
-1.384167
-1.384167
0.625559
0.625559
0.629384
0.629384
-0.313522
-0.313522
-1.013330
-1.013330
1.259060
1.259060
0.441912
0.441912
-2.105292
-2.105292
-0.701417
-0.701417
0.553557
0.553557
1.002220
1.002220
-0.206666
-0.206666
0.709032
0.709032
0.493778
0.493778
0.228862
0.228862
0.079828
0.079828
-0.223497
-0.223497
-1.413861
-1.413861
0.345627
0.345627
-1.133039
-1.133039
-0.291471
-0.291471
-0.277856
-0.277856
-1.588594
-1.588594
-1.248394
-1.248394
1.324167
1.324167
-0.481813
-0.481813
-0.737164
-0.737164
1.762121
1.762121
-0.400529
-0.400529
0.911763
0.911763
-1.757996
-1.757996
0.069619
0.069619
0.327400
0.327400
-0.418223
-0.418223
1.598648
1.598648
0.228425
0.228425
-0.743632
-0.743632
-0.664622
-0.664622
0.527839
0.527839
-1.188542
-1.188542
0.298280
0.298280
0.271042
0.271042
-0.189676
-0.189676
-1.052283
-1.052283
0.956956
0.956956
-0.797626
-0.797626
-0.901082
-0.901082
-0.602210
-0.602210
0.278717
0.278717
0.858484
0.858484
1.603464
1.603464
-0.360937
-0.360937
0.320655
0.320655
-1.556384
-1.556384
0.315762
0.315762
-0.425568
-0.425568
-2.237832
-2.237832
-0.870908
-0.870908
-0.378459
-0.378459
-0.521619
-0.521619
0.884641
0.884641
-0.384293
-0.384293
-1.614244
-1.614244
-0.457922
-0.457922
0.573586
0.573586
-0.301224
-0.301224
1.094287
1.094287
-0.359138
-0.359138
-0.126480
-0.126480
-1.161307
-1.161307
0.213719
0.213719
0.290672
0.290672
0.064938
0.064938
1.314768
1.314768
1.686748
1.686748
-0.275115
-0.275115
0.715967
0.715967
-0.907976
-0.907976
-2.064741
-2.064741
0.373516
0.373516
0.176185
0.176185
1.278539
1.278539
-0.553153
-0.553153
0.612821
0.612821
-1.226607
-1.226607
2.266326
2.266326
-0.301713
-0.301713
2.238039
2.238039
-0.533366
-0.533366
-0.703281
-0.703281
-0.892552
-0.892552
-0.050296
-0.050296
-0.745807
-0.745807
0.658808
0.658808
0.574270
0.574270
-3.029118
-3.029118
-0.151383
-0.151383
-1.008998
-1.008998
1.343703
1.343703
1.582303
1.582303
1.292906
1.292906
1.007902
1.007902
0.002521
0.002521
-0.586927
-0.586927
0.582450
0.582450
-0.516649
-0.516649
-1.503666
-1.503666
1.583876
1.583876
-0.910537
-0.910537
2.949545
2.949545
-1.631277
-1.631277
1.050068
1.050068
-0.397616
-0.397616
-1.109838
-1.109838
-1.371845
-1.371845
-1.910239
-1.910239
-1.267656
-1.267656
0.665319
0.665319
-0.894948
-0.894948
-0.023022
-0.023022
0.589089
0.589089
-1.043657
-1.043657
1.842629
1.842629
0.901532
0.901532
1.347967
1.347967
-0.128456
-0.128456
-0.491253
-0.491253
1.956518
1.956518
-2.177568
-2.177568
-0.373959
-0.373959
0.237000
0.237000
-0.159580
-0.159580
-0.735411