# vtk DataFile Version 3.0
graph2vtk_edges
ASCII
DATASET POLYDATA
POINTS 6344 float 
1.000000 1.500000 4.567435
1.500000 1.000000 3.334416
1.000000 1.500000 4.567435
1.000000 2.500000 5.125332
1.000000 1.500000 4.567435
1.500000 2.000000 5.287676
1.000000 2.500000 5.125332
1.500000 2.000000 5.287676
1.000000 2.500000 5.125332
1.000000 3.500000 3.853529
1.000000 2.500000 5.125332
1.500000 3.000000 6.190915
1.000000 3.500000 3.853529
1.500000 3.000000 6.190915
1.000000 3.500000 3.853529
1.000000 4.500000 6.189164
1.000000 3.500000 3.853529
1.500000 4.000000 4.962367
1.000000 4.500000 6.189164
1.500000 4.000000 4.962367
1.000000 4.500000 6.189164
1.000000 5.500000 5.327292
1.000000 4.500000 6.189164
1.500000 5.000000 5.174639
1.000000 5.500000 5.327292
1.500000 5.000000 5.174639
1.000000 5.500000 5.327292
1.000000 6.500000 4.813291
1.000000 5.500000 5.327292
1.500000 6.000000 5.725791
1.000000 6.500000 4.813291
1.500000 6.000000 5.725791
1.000000 6.500000 4.813291
1.000000 7.500000 4.411683
1.000000 6.500000 4.813291
1.500000 7.000000 7.183186
1.000000 7.500000 4.411683
1.500000 7.000000 7.183186
1.000000 7.500000 4.411683
1.000000 8.500000 4.863604
1.000000 7.500000 4.411683
1.500000 8.000000 5.113931
1.000000 8.500000 4.863604
1.500000 8.000000 5.113931
1.000000 8.500000 4.863604
1.000000 9.500000 6.066768
1.000000 8.500000 4.863604
1.500000 9.000000 5.059281
1.000000 9.500000 6.066768
1.500000 9.000000 5.059281
1.000000 9.500000 6.066768
1.000000 10.500000 4.904352
1.000000 9.500000 6.066768
1.500000 10.000000 4.167651
1.000000 10.500000 4.904352
1.500000 10.000000 4.167651
1.000000 10.500000 4.904352
1.000000 11.500000 5.294411
1.000000 10.500000 4.904352
1.500000 11.000000 3.663818
1.000000 11.500000 5.294411
1.500000 11.000000 3.663818
1.000000 11.500000 5.294411
1.000000 12.500000 5.714325
1.000000 11.500000 5.294411
1.500000 12.000000 6.623562
1.000000 12.500000 5.714325
1.500000 12.000000 6.623562
1.000000 12.500000 5.714325
1.000000 13.500000 4.308224
1.000000 12.500000 5.714325
1.500000 13.000000 5.857997
1.000000 13.500000 4.308224
1.500000 13.000000 5.857997
1.000000 13.500000 4.308224
1.000000 14.500000 6.254001
1.000000 13.500000 4.308224
1.500000 14.000000 3.406270
1.000000 14.500000 6.254001
1.500000 14.000000 3.406270
1.000000 14.500000 6.254001
1.000000 15.500000 3.559036
1.000000 14.500000 6.254001
1.500000 15.000000 5.571148
1.000000 15.500000 3.559036
1.500000 15.000000 5.571148
1.000000 15.500000 3.559036
1.000000 16.500000 4.600114
1.000000 15.500000 3.559036
1.500000 16.000000 5.689997
1.000000 16.500000 4.600114
1.500000 16.000000 5.689997
1.000000 16.500000 4.600114
1.000000 17.500000 5.815622
1.000000 16.500000 4.600114
1.500000 17.000000 5.711908
1.000000 17.500000 5.815622
1.500000 17.000000 5.711908
1.000000 17.500000 5.815622
1.000000 18.500000 6.290250
1.000000 17.500000 5.815622
1.500000 18.000000 5.668601
1.000000 18.500000 6.290250
1.500000 18.000000 5.668601
1.000000 18.500000 6.290250
1.000000 19.500000 6.190838
1.000000 18.500000 6.290250
1.500000 19.000000 3.797543
1.000000 19.500000 6.190838
1.500000 19.000000 3.797543
1.000000 19.500000 6.190838
1.000000 20.500000 4.980210
1.000000 19.500000 6.190838
1.500000 20.000000 4.843283
1.000000 20.500000 4.980210
1.500000 20.000000 4.843283
1.000000 20.500000 4.980210
1.000000 21.500000 3.395914
1.000000 20.500000 4.980210
1.500000 21.000000 5.257304
1.000000 21.500000 3.395914
1.500000 21.000000 5.257304
1.000000 21.500000 3.395914
1.000000 22.500000 3.943527
1.000000 21.500000 3.395914
1.500000 22.000000 6.415141
1.000000 22.500000 3.943527
1.500000 22.000000 6.415141
1.000000 22.500000 3.943527
1.000000 23.500000 4.194910
1.000000 22.500000 3.943527
1.500000 23.000000 5.528743
1.000000 23.500000 4.194910
1.500000 23.000000 5.528743
1.000000 23.500000 4.194910
1.500000 24.000000 5.219321
1.500000 1.000000 3.334416
2.000000 1.500000 4.078098
1.500000 2.000000 5.287676
2.000000 1.500000 4.078098
1.500000 1.000000 3.334416
2.500000 1.000000 2.829326
2.000000 1.500000 4.078098
2.500000 1.000000 2.829326
1.500000 2.000000 5.287676
2.000000 2.500000 4.940812
1.500000 3.000000 6.190915
2.000000 2.500000 4.940812
2.000000 1.500000 4.078098
2.000000 2.500000 4.940812
1.500000 2.000000 5.287676
2.500000 2.000000 3.989366
2.000000 1.500000 4.078098
2.500000 2.000000 3.989366
2.000000 2.500000 4.940812
2.500000 2.000000 3.989366
1.500000 3.000000 6.190915
2.000000 3.500000 5.614463
1.500000 4.000000 4.962367
2.000000 3.500000 5.614463
2.000000 2.500000 4.940812
2.000000 3.500000 5.614463
1.500000 3.000000 6.190915
2.500000 3.000000 5.507741
2.000000 2.500000 4.940812
2.500000 3.000000 5.507741
2.000000 3.500000 5.614463
2.500000 3.000000 5.507741
1.500000 4.000000 4.962367
2.000000 4.500000 6.692430
1.500000 5.000000 5.174639
2.000000 4.500000 6.692430
2.000000 3.500000 5.614463
2.000000 4.500000 6.692430
1.500000 4.000000 4.962367
2.500000 4.000000 5.591283
2.000000 3.500000 5.614463
2.500000 4.000000 5.591283
2.000000 4.500000 6.692430
2.500000 4.000000 5.591283
1.500000 5.000000 5.174639
2.000000 5.500000 4.356405
1.500000 6.000000 5.725791
2.000000 5.500000 4.356405
2.000000 4.500000 6.692430
2.000000 5.500000 4.356405
1.500000 5.000000 5.174639
2.500000 5.000000 5.380337
2.000000 4.500000 6.692430
2.500000 5.000000 5.380337
2.000000 5.500000 4.356405
2.500000 5.000000 5.380337
1.500000 6.000000 5.725791
2.000000 6.500000 3.990884
1.500000 7.000000 7.183186
2.000000 6.500000 3.990884
2.000000 5.500000 4.356405
2.000000 6.500000 3.990884
1.500000 6.000000 5.725791
2.500000 6.000000 4.980489
2.000000 5.500000 4.356405
2.500000 6.000000 4.980489
2.000000 6.500000 3.990884
2.500000 6.000000 4.980489
1.500000 7.000000 7.183186
2.000000 7.500000 4.951779
1.500000 8.000000 5.113931
2.000000 7.500000 4.951779
2.000000 6.500000 3.990884
2.000000 7.500000 4.951779
1.500000 7.000000 7.183186
2.500000 7.000000 5.000043
2.000000 6.500000 3.990884
2.500000 7.000000 5.000043
2.000000 7.500000 4.951779
2.500000 7.000000 5.000043
1.500000 8.000000 5.113931
2.000000 8.500000 4.682141
1.500000 9.000000 5.059281
2.000000 8.500000 4.682141
2.000000 7.500000 4.951779
2.000000 8.500000 4.682141
1.500000 8.000000 5.113931
2.500000 8.000000 6.095004
2.000000 7.500000 4.951779
2.500000 8.000000 6.095004
2.000000 8.500000 4.682141
2.500000 8.000000 6.095004
1.500000 9.000000 5.059281
2.000000 9.500000 3.126010
1.500000 10.000000 4.167651
2.000000 9.500000 3.126010
2.000000 8.500000 4.682141
2.000000 9.500000 3.126010
1.500000 9.000000 5.059281
2.500000 9.000000 5.428183
2.000000 8.500000 4.682141
2.500000 9.000000 5.428183
2.000000 9.500000 3.126010
2.500000 9.000000 5.428183
1.500000 10.000000 4.167651
2.000000 10.500000 5.895638
1.500000 11.000000 3.663818
2.000000 10.500000 5.895638
2.000000 9.500000 3.126010
2.000000 10.500000 5.895638
1.500000 10.000000 4.167651
2.500000 10.000000 5.730957
2.000000 9.500000 3.126010
2.500000 10.000000 5.730957
2.000000 10.500000 5.895638
2.500000 10.000000 5.730957
1.500000 11.000000 3.663818
2.000000 11.500000 5.577857
1.500000 12.000000 6.623562
2.000000 11.500000 5.577857
2.000000 10.500000 5.895638
2.000000 11.500000 5.577857
1.500000 11.000000 3.663818
2.500000 11.000000 5.040314
2.000000 10.500000 5.895638
2.500000 11.000000 5.040314
2.000000 11.500000 5.577857
2.500000 11.000000 5.040314
1.500000 12.000000 6.623562
2.000000 12.500000 5.677089
1.500000 13.000000 5.857997
2.000000 12.500000 5.677089
2.000000 11.500000 5.577857
2.000000 12.500000 5.677089
1.500000 12.000000 6.623562
2.500000 12.000000 5.568900
2.000000 11.500000 5.577857
2.500000 12.000000 5.568900
2.000000 12.500000 5.677089
2.500000 12.000000 5.568900
1.500000 13.000000 5.857997
2.000000 13.500000 4.744355
1.500000 14.000000 3.406270
2.000000 13.500000 4.744355
2.000000 12.500000 5.677089
2.000000 13.500000 4.744355
1.500000 13.000000 5.857997
2.500000 13.000000 4.622531
2.000000 12.500000 5.677089
2.500000 13.000000 4.622531
2.000000 13.500000 4.744355
2.500000 13.000000 4.622531
1.500000 14.000000 3.406270
2.000000 14.500000 4.704113
1.500000 15.000000 5.571148
2.000000 14.500000 4.704113
2.000000 13.500000 4.744355
2.000000 14.500000 4.704113
1.500000 14.000000 3.406270
2.500000 14.000000 3.524865
2.000000 13.500000 4.744355
2.500000 14.000000 3.524865
2.000000 14.500000 4.704113
2.500000 14.000000 3.524865
1.500000 15.000000 5.571148
2.000000 15.500000 4.765996
1.500000 16.000000 5.689997
2.000000 15.500000 4.765996
2.000000 14.500000 4.704113
2.000000 15.500000 4.765996
1.500000 15.000000 5.571148
2.500000 15.000000 5.118445
2.000000 14.500000 4.704113
2.500000 15.000000 5.118445
2.000000 15.500000 4.765996
2.500000 15.000000 5.118445
1.500000 16.000000 5.689997
2.000000 16.500000 5.314809
1.500000 17.000000 5.711908
2.000000 16.500000 5.314809
2.000000 15.500000 4.765996
2.000000 16.500000 5.314809
1.500000 16.000000 5.689997
2.500000 16.000000 6.443508
2.000000 15.500000 4.765996
2.500000 16.000000 6.443508
2.000000 16.500000 5.314809
2.500000 16.000000 6.443508
1.500000 17.000000 5.711908
2.000000 17.500000 4.649025
1.500000 18.000000 5.668601
2.000000 17.500000 4.649025
2.000000 16.500000 5.314809
2.000000 17.500000 4.649025
1.500000 17.000000 5.711908
2.500000 17.000000 5.623234
2.000000 16.500000 5.314809
2.500000 17.000000 5.623234
2.000000 17.500000 4.649025
2.500000 17.000000 5.623234
1.500000 18.000000 5.668601
2.000000 18.500000 5.799049
1.500000 19.000000 3.797543
2.000000 18.500000 5.799049
2.000000 17.500000 4.649025
2.000000 18.500000 5.799049
1.500000 18.000000 5.668601
2.500000 18.000000 5.940890
2.000000 17.500000 4.649025
2.500000 18.000000 5.940890
2.000000 18.500000 5.799049
2.500000 18.000000 5.940890
1.500000 19.000000 3.797543
2.000000 19.500000 4.007908
1.500000 20.000000 4.843283
2.000000 19.500000 4.007908
2.000000 18.500000 5.799049
2.000000 19.500000 4.007908
1.500000 19.000000 3.797543
2.500000 19.000000 5.212035
2.000000 18.500000 5.799049
2.500000 19.000000 5.212035
2.000000 19.500000 4.007908
[...]
POINT_DATA 6344
SCALARS connectivity float
LOOKUP_TABLE default
3.950925
3.950925
4.846384
4.846384
4.927556
4.927556
5.206504
5.206504
4.489430
4.489430
5.658124
5.658124
5.022222
5.022222
5.021346
5.021346
4.407948
4.407948
5.575765
5.575765
5.758228
5.758228
5.681902
5.681902
5.250966
5.250966
5.070292
5.070292
5.526541
5.526541
5.269541
5.269541
4.612487
4.612487
5.998239
5.998239
5.797435
5.797435
4.637644
4.637644
4.762807
4.762807
4.988768
4.988768
5.465186
5.465186
4.961443
4.961443
5.563025
5.563025
5.485560
5.485560
5.117209
5.117209
4.536001
4.536001
5.099381
5.099381
4.284085
4.284085
4.479114
4.479114
5.504368
5.504368
5.958986
5.958986
6.168943
6.168943
5.011274
5.011274
5.786161
5.786161
5.083110
5.083110
5.281113
5.281113
3.857247
3.857247
4.830136
4.830136
4.906518
4.906518
5.912575
5.912575
4.565092
4.565092
4.079575
4.079575
4.624516
4.624516
5.145056
5.145056
5.207868
5.207868
5.156011
5.156011
5.763765
5.763765
6.052936
6.052936
5.742111
5.742111
5.979425
5.979425
6.240544
6.240544
5.043896
5.043896
4.994190
4.994190
5.585524
5.585524
5.517060
5.517060
4.911747
4.911747
4.188062
4.188062
5.118757
5.118757
4.326609
4.326609
3.669721
3.669721
4.905528
4.905528
5.179334
5.179334
4.069218
4.069218
4.736135
4.736135
4.861826
4.861826
4.707115
4.707115
3.706257
3.706257
4.682887
4.682887
3.081871
3.081871
3.453712
3.453712
5.114244
5.114244
5.565864
5.565864
4.509455
4.509455
4.638521
4.638521
4.033732
4.033732
4.465089
4.465089
5.902689
5.902689
5.288415
5.288415
5.277638
5.277638
5.849328
5.849328
5.224276
5.224276
5.561102
5.561102
5.827398
5.827398
5.933535
5.933535
6.153446
6.153446
5.276825
5.276825
5.602873
5.602873
6.141856
6.141856
4.765522
4.765522
5.041098
5.041098
5.524417
5.524417
5.277488
5.277488
6.036384
6.036384
4.868371
4.868371
4.858338
4.858338
5.587035
5.587035
4.173645
4.173645
5.353140
5.353140
4.668447
4.668447
4.485687
4.485687
6.067483
6.067483
5.032855
5.032855
4.471332
4.471332
6.091615
6.091615
4.495464
4.495464
4.975911
4.975911
4.898036
4.898036
4.870711
4.870711
4.816960
4.816960
5.604468
5.604468
5.523391
5.523391
5.388572
5.388572
4.092646
4.092646
3.646830
3.646830
3.904075
3.904075
5.243732
5.243732
5.055162
5.055162
4.277097
4.277097
5.031645
5.031645
4.779728
4.779728
4.510824
4.510824
4.949304
4.949304
4.428484
4.428484
5.813298
5.813298
4.620838
4.620838
6.100710
6.100710
5.736748
5.736748
4.352066
4.352066
5.467976
5.467976
5.309086
5.309086
6.150326
6.150326
5.767543
5.767543
5.627473
5.627473
6.096231
6.096231
5.573379
5.573379
5.622995
5.622995
5.301176
5.301176
4.075313
4.075313
5.210722
5.210722
5.240264
5.240264
5.149810
5.149810
4.683443
4.683443
4.055192
4.055192
5.137630
5.137630
4.724234
4.724234
3.465568
3.465568
4.134610
4.134610
4.114489
4.114489
5.168572
5.168572
5.227997
5.227997
4.735054
4.735054
5.344796
5.344796
4.911279
4.911279
4.942220
4.942220
5.502403
5.502403
5.513359
5.513359
5.040402
5.040402
6.066753
6.066753
5.604752
5.604752
5.879159
5.879159
5.180467
5.180467
5.158813
5.158813
4.981917
4.981917
5.667571
5.667571
5.469021
5.469021
5.136130
5.136130
5.733825
5.733825
4.798296
4.798296
5.224037
5.224037
5.804745
5.804745
5.294958
5.294958
5.869969
5.869969
3.902726
3.902726
4.425595
4.425595
4.903478
4.903478
4.504789
4.504789
5.505542
5.505542
4.609972
4.609972
5.040582
5.040582
5.247593
5.247593
4.622895
4.622895
4.417760
4.417760
4.000072
4.000072
4.615059
4.615059
4.757630
4.757630
5.336548
5.336548
4.747919
4.747919
5.669800
5.669800
5.660089
5.660089
5.170125
5.170125
5.641821
5.641821
5.198622
5.198622
4.563228
4.563228
5.902511
5.902511
4.823918
4.823918
5.129190
5.129190
5.308365
5.308365
5.153654
5.153654
4.978244
4.978244
4.946639
4.946639
4.616518
4.616518
4.726261
4.726261
4.829874
4.829874
4.764207
4.764207
4.136489
4.136489
4.716510
4.716510
3.439711
3.439711
4.746875
4.746875
4.885274
4.885274
5.644461
5.644461
5.612418
5.612418
4.779163
4.779163
5.506307
5.506307
5.675071
5.675071
4.843013
4.843013
4.884784
4.884784
4.979734
4.979734
5.121067
5.121067
5.257787
5.257787
4.456339
4.456339
4.701753
4.701753
4.596280
4.596280
3.995254
3.995254
4.194481
4.194481
3.487982
3.487982
3.304951
3.304951
5.683337
5.683337
5.483413
5.483413
4.899280
4.899280
4.930851
4.930851
4.146794
4.146794
5.233851
5.233851
5.153928
5.153928
5.163705
5.163705
5.656852
5.656852
5.107273
5.107273
5.610197
5.610197
5.280712
5.280712
5.010755
5.010755
5.558235
5.558235
5.174417
5.174417
4.498049
4.498049
4.661712
4.661712
4.508761
4.508761
5.073929
5.073929
4.740519
4.740519
4.537160
4.537160
5.360287
5.360287
4.823518
4.823518
4.339212
4.339212
4.621149
4.621149
4.772536
4.772536
3.933484
3.933484
4.686140
4.686140
3.998476
3.998476
3.879105
3.879105
6.101719
6.101719
5.756397
5.756397
5.143297
5.143297
5.393351
5.393351
4.434929
4.434929
5.764112
5.764112
4.411498
4.411498
4.675791
4.675791
5.127581
5.127581
4.999543
4.999543
5.715626
5.715626
4.370728
4.370728
4.720278
4.720278
4.247094
4.247094
3.827169
3.827169
4.609811
4.609811
3.716703
3.716703
3.761189
3.761189
4.680715
4.680715
4.131882
4.131882
4.305277
4.305277
5.287998
5.287998
4.912561
4.912561
5.346182
5.346182
4.326755
4.326755
5.123545
5.123545
4.933771
4.933771
4.590667
4.590667
5.197683
5.197683
5.392556
5.392556
4.475313
4.475313
5.137844
5.137844
4.480413
4.480413
4.828920
4.828920
4.834020
4.834020
4.185788
4.185788
5.590534
5.590534
5.180397
5.180397
4.284870
4.284870
5.115178
5.115178
3.809514
3.809514
4.262204
4.262204
4.651898
4.651898
4.810726
4.810726
4.209062
4.209062
5.777226
5.777226
5.334389
5.334389
4.805890
4.805890
5.476067
5.476067
5.111640
5.111640
4.345904
4.345904
5.147872
5.147872
4.017709
4.017709
4.683050
4.683050
5.508882
5.508882
4.898983
4.898983
5.408487
5.408487
5.221831
5.221831
5.121435
5.121435
5.518677
5.518677
4.001238
4.001238
5.046268
5.046268
4.907985
4.907985
5.165911
5.165911
6.072657
6.072657
5.174913
5.174913
5.685898
5.685898
5.339691
5.339691
4.649871
4.649871
6.280606
6.280606
5.244579
5.244579
5.884210
5.884210
5.763954
5.763954
5.251281
5.251281
5.713765
5.713765
4.852871
4.852871
4.802682
4.802682
5.226945
5.226945
4.036299
4.036299
4.074245
4.074245
4.923046
4.923046
4.645804
4.645804
5.532551
5.532551
4.317569
4.317569
4.554914
4.554914
4.188733
4.188733
4.103234
4.103234
4.862667
4.862667
4.773933
4.773933
4.827071
4.827071
6.028726
6.028726
5.611442
5.611442
5.322431
5.322431
5.011242
5.011242
4.304948
4.304948
5.471007
5.471007
4.443817
4.443817
3.475461
3.475461
5.320866
5.320866
4.744028
4.744028
5.621077
5.621077
4.453453
4.453453
4.230352
4.230352
5.072195
5.072195
4.908133
4.908133
3.471741
3.471741
4.149522
4.149522
4.904413
4.904413
4.140025
4.140025
4.516371
4.516371
4.730855
4.730855
4.680748
4.680748
5.271577
5.271577
4.339408
4.339408
5.084381
5.084381
4.465381
4.465381
4.366696
4.366696
5.359676
5.359676
4.641990
4.641990
5.210001
5.210001
4.200282
4.200282
4.515040
4.515040
4.669608
4.669608
4.423194
4.423194
4.892519
4.892519
4.627421
4.627421
4.595409
4.595409
4.254673
4.254673
4.484879
4.484879
4.773120
4.773120
4.662589
4.662589
4.742959
4.742959
5.239625
5.239625
5.795448
5.795448
5.550200
5.550200
4.168807
4.168807
4.479383
4.479383
5.464335
5.464335
4.354191
4.354191
4.305705
4.305705
5.093895
5.093895
5.262563
5.262563
6.002268
6.002268
4.561010
4.561010
4.527603
4.527603
3.873578
3.873578
3.874535
3.874535
4.997326
4.997326
4.344258
4.344258
4.566156
4.566156
4.011596
4.011596
5.162967
5.162967
4.234451
4.234451
4.593060
4.593060
4.815916
4.815916
4.953933
4.953933
5.753174
5.753174
5.604676
5.604676
4.962676
4.962676
5.374887
5.374887
4.584389
4.584389
5.174597
5.174597
4.301071
4.301071
3.742535
3.742535
4.249279
4.249279
5.394514
5.394514
5.342722
5.342722
4.039118
4.039118
5.566168
5.566168
5.189894
5.189894
4.769308
4.769308
5.278903
5.278903
4.482044
4.482044
6.305676
6.305676
3.603223
3.603223
4.675408
4.675408
5.006269
5.006269
4.354093
4.354093
5.757139
5.757139
4.170468
4.170468
5.124780
5.124780
4.336599
4.336599
3.868970
3.868970
4.953332
4.953332
3.697522
3.697522
4.146895
4.146895
4.060250
4.060250
4.498636
4.498636
4.041995
4.041995
4.821831
4.821831
4.803575
4.803575
4.527227
4.527227
4.901162
4.901162
5.455141
5.455141
4.168172
4.168172
5.143714
5.143714
4.410724
4.410724
4.813249
4.813249
5.485856
5.485856
5.555522
5.555522
4.601412
4.601412
5.437306
5.437306
4.552862
4.552862
4.583577
4.583577
5.924939
5.924939
4.843411
4.843411
5.001544
5.001544
6.103600
6.103600
5.180205
5.180205
5.549622
5.549622
5.714011
5.714011
6.019617
6.019617
6.241560
6.241560
3.979282
3.979282
4.506831
4.506831
5.377431
5.377431
4.452232
4.452232
4.323395
4.323395
5.544775
5.544775
5.482454
5.482454
6.574997
6.574997
5.007612
5.007612
4.639801
4.639801
4.293795
4.293795
4.558252
4.558252
4.036129
4.036129
5.406656
5.406656
4.467139
4.467139
5.503383
5.503383
5.653453
5.653453
5.085988
5.085988
5.080709
5.080709
4.663314
4.663314
6.130568
6.130568
5.855524
5.855524
5.551594
5.551594
6.755314
6.755314
5.129103
5.129103
6.028892
6.028892
6.230964
6.230964
5.505166
5.505166
5.872330
5.872330
6.910957
6.910957
4.402995
4.402995
5.808786
5.808786
5.762359
5.762359
4.370176
4.370176
4.672758
4.672758
5.362375
5.362375
4.834504
4.834504
5.826703
5.826703
4.324549
4.324549
5.837770
5.837770
5.520289
5.520289
5.025233
5.025233
4.684543
4.684543
3.872006
3.872006
5.037018
5.037018
5.242803
5.242803
5.277972
5.277972
5.912760
5.912760
4.624460
4.624460
5.294416
5.294416
5.016931
5.016931
5.235927
5.235927
4.972351
4.972351
5.593229
5.593229
4.410415
4.410415
4.767717
4.767717
4.725672
4.725672
4.739754
4.739754
5.277687
5.277687
5.318588
5.318588
3.694477
3.694477
4.273311
4.273311
4.040714
4.040714
4.988148
4.988148
4.771396
4.771396
4.796451
4.796451
5.465716
5.465716
5.274019
5.274019
4.984480
4.984480
4.857437
4.857437
5.107197
5.107197
4.592954
4.592954
5.636218
5.636218
5.371734
5.371734
5.457775
5.457775
4.952059
4.952059
4.582515
4.582515
4.523858
4.523858
4.105093
4.105093
3.676892
3.676892
3.521755
3.521755
4.282336
4.282336
4.450462
4.450462
4.068542
4.068542
5.425979
5.425979
5.212184
5.212184
4.912006
4.912006
5.009668
5.009668
5.452594
5.452594
4.327570
4.327570
5.255892
5.255892
4.573794
4.573794
5.133000
5.133000
5.981306
5.981306
5.432769
5.432769
5.415488
5.415488
4.448993
4.448993
3.883175
3.883175
4.411887
4.411887
4.638330
4.638330
4.165384
4.165384
5.149760
5.149760
4.608518
4.608518
5.119949
5.119949
4.325510
4.325510
3.978655
3.978655
4.635335
4.635335
4.168592
4.168592
4.396683
4.396683
4.586620
4.586620
4.399890
4.399890
5.904910
5.904910
5.788407
5.788407
5.251438
5.251438
5.125184
5.125184
4.471712
4.471712
5.741287
5.741287
5.641625
5.641625
5.381237
5.381237
6.374231
6.374231
4.679798
4.679798
5.412404
5.412404
5.265622
5.265622
4.771276
4.771276
5.367904
5.367904
5.617486
5.617486
4.376067
4.376067
5.222277
5.222277
4.612316
4.612316
5.657611
5.657611
4.614820
4.614820
5.297232
5.297232
5.238538
5.238538
4.878159
4.878159
5.167866
5.167866
4.561419
4.561419
5.758985
5.758985
5.533537
5.533537
4.655429
4.655429
5.627547
5.627547
5.574145
5.574145
5.479757
5.479757
4.765940
4.765940
5.200907
5.200907
5.963503
5.963503
5.684654
5.684654
5.405426
5.405426
5.959744
5.959744
6.115483
6.115483
5.420091
5.420091
5.616266
5.616266
5.151878
5.151878
5.256426
5.256426
5.810517
5.810517
5.708842
5.708842
5.718890
5.718890
5.381917
5.381917
5.290290
5.290290
5.484541
5.484541
4.698736
4.698736
4.276559
4.276559
4.903035
4.903035
5.495020
5.495020
5.699319
5.699319
4.689214
4.689214
4.827592
4.827592
4.891936
4.891936
4.443963
4.443963
4.691985
4.691985
4.308356
4.308356
4.859389
4.859389
5.532664
5.532664
5.080122
5.080122
5.635724
5.635724
5.826139
5.826139
5.929198
5.929198
6.569927
6.569927
4.180616
4.180616
4.438014
4.438014
5.376947
5.376947
4.493608
4.493608
5.689938
5.689938
4.790433
4.790433
4.295469
4.295469
4.046255
4.046255
4.334896
4.334896
5.039513
5.039513
5.078940
5.078940
4.936395
4.936395
3.267785
3.267785
2.815423
2.815423
3.413881
3.413881
4.945137
4.945137
5.091233
5.091233
4.312763
4.312763
4.107168
4.107168
5.340474
5.340474
3.927155
3.927155
4.128550
4.128550
3.948536
3.948536
5.240281
5.240281
5.837746
5.837746
6.225000
6.225000
5.716172
5.716172
5.093691
5.093691
4.972116
4.972116
5.469389
5.469389
5.551711
5.551711
3.770827
3.770827
5.540155
5.540155
4.983028
4.983028
4.971472
4.971472
4.298183
4.298183
3.005591
3.005591
4.696021
4.696021
4.101630
4.101630
3.485617
3.485617
4.581656
4.581656
3.816420
3.816420
5.668264
5.668264
5.330052
5.330052
4.308637
4.308637
5.257220
5.257220
3.897592
3.897592
4.869836
4.869836
4.522846
4.522846
3.273021
3.273021
4.473675
4.473675
5.725955
5.725955
5.676783
5.676783
4.869578
4.869578
3.583744
3.583744
4.291806
4.291806
3.977192
3.977192
3.934144
3.934144
4.327592
4.327592
4.638314
4.638314
4.647441
4.647441
4.908551
4.908551
4.643549
4.643549
4.523131
4.523131
4.519239
4.519239
4.874873
4.874873
5.107247
5.107247
5.179068
5.179068
5.197879
5.197879
4.776952
4.776952
4.867585
4.867585
5.066281
5.066281
4.148775
4.148775
3.819892
3.819892
4.366282
4.366282
4.466293
4.466293
4.683800
4.683800
3.653507
3.653507
4.773445
4.773445
4.730101
4.730101
4.289542
4.289542
4.023603
4.023603
3.539700
3.539700
4.493252
4.493252
4.434962
4.434962
4.700805
4.700805
4.947956
4.947956
4.137867
4.137867
4.650861
4.650861
4.355722
4.355722
4.287116
4.287116
4.746797
4.746797
4.239128
4.239128
4.363825
4.363825
4.315838
4.315838
3.902149
3.902149
5.133244
5.133244
5.243753
5.243753
4.211886
4.211886
5.420910
5.420910
4.499553
4.499553
4.885999
4.885999
5.386527
5.386527
6.096584
6.096584
4.741107
4.741107
5.976646
5.976646
5.331226
5.331226
5.474000
5.474000
6.031951
6.031951
4.819248
4.819248
4.235337
4.235337
4.269201
4.269201
4.998973
4.998973
4.246098
4.246098
5.063657
5.063657
5.278435
5.278435
4.276917
4.276917
5.186238
5.186238
4.399498
4.399498
5.193954
5.193954
5.492662
5.492662
5.111804
5.111804
5.285599
5.285599
5.881791
5.881791
5.674729
5.674729
5.888955
5.888955
4.587983
4.587983
5.657792
5.657792
4.976005
4.976005
4.992295
4.992295
5.380317
5.380317
4.856496
4.856496
5.925112
5.925112
5.045124
5.045124
4.719504
4.719504
5.641568
5.641568
4.435960
4.435960
4.703280
4.703280
6.119866
6.119866
6.408374
6.408374
6.061566
6.061566
4.922904
4.922904
4.864603
4.864603
5.939346
5.939346
4.635455
4.635455
4.790293
4.790293
5.363390
5.363390
6.225270
6.225270
6.953205
6.953205
5.180286
5.180286
5.657830
5.657830
5.293604
5.293604
4.458009
4.458009
4.935538
4.935538
3.735716
3.735716
4.603253
4.603253
5.441006
5.441006
5.172842
5.172842
5.472948
5.472948
5.765722
5.765722
5.797664
5.797664
5.945066
5.945066
4.414645
4.414645
3.916729
3.916729
4.862154
4.862154
4.930254
4.930254
5.377763
5.377763
4.619566
4.619566
4.295230
4.295230
4.578703
4.578703
4.482459
4.482459
3.783052
3.783052
3.970281
3.970281
4.348782
4.348782
5.240083
5.240083
5.321255
5.321255
5.522340
5.522340
4.640508
4.640508
4.922765
4.922765
5.584145
5.584145
4.997505
4.997505
5.804452
5.804452
5.859969
5.859969
4.371181
4.371181
5.233645
5.233645
4.909895
4.909895
5.208563
5.208563
4.666578
4.666578
4.940330
4.940330
5.693525
5.693525
5.425291
5.425291
4.829402
4.829402
5.047764
5.047764
4.928689
4.928689
4.725627
4.725627
5.918465
5.918465
5.596328
5.596328
5.977515
5.977515
4.737729
4.737729
4.730440
4.730440
4.915854
4.915854
5.981559
5.981559
6.159684
6.159684
5.968724
5.968724
5.622256
5.622256
5.239775
5.239775
5.616710
5.616710
3.895454
3.895454
3.889908
3.889908
4.781724
4.781724
3.645241
3.645241
3.531434
3.531434
4.913991
4.913991
4.198745
4.198745
5.467496
5.467496
3.872962
3.872962
4.278797
4.278797
4.436406
4.436406
4.066820
4.066820
4.376172
4.376172
4.164196
4.164196
4.911559
4.911559
4.947789
4.947789
4.907904
4.907904
5.325567
5.325567
4.168179
4.168179
4.545956
4.545956
5.057340
5.057340
4.128684
4.128684
4.726088
4.726088
5.057730
5.057730
4.388839
4.388839
5.317884
5.317884
4.538664
4.538664
5.076601
5.076601
5.521827
5.521827
4.629023
4.629023
5.226278
5.226278
4.778700
4.778700
5.129213
5.129213
6.061207
6.061207
5.406454
5.406454
5.518915
5.518915
5.842896
5.842896
5.300605
5.300605
5.839984
5.839984
4.001999
4.001999
4.653840
4.653840
5.353541
5.353541
5.506942
5.506942
5.410610
5.410610
5.754417
5.754417
5.476440
5.476440
5.957215
5.957215
5.666846
5.666846
5.813308
5.813308
6.003714
6.003714
5.973213
5.973213
5.802591
5.802591
5.293953
5.293953
5.481721
5.481721
5.302545
5.302545
4.981676
4.981676
4.827052
4.827052
5.055740
5.055740
4.635204
4.635204
5.088885
5.088885
3.905895
3.905895
3.939040
3.939040
3.700827
3.700827
4.946511
4.946511
5.107834
5.107834
5.161979
5.161979
4.768341
4.768341
4.983809
4.983809
5.295116
5.295116
4.575640
4.575640
5.589499
5.589499
4.941091
4.941091
4.543838
4.543838
4.909289
4.909289
4.377094
4.377094
5.344720
5.344720
3.900149
3.900149
4.164117
4.164117
5.861185
5.861185
4.680583
4.680583
4.435804
4.435804
4.630152
4.630152
5.824563
5.824563
4.649341
4.649341
4.275300
4.275300
4.294489
4.294489
5.024492
5.024492
5.384942
5.384942
4.817639
4.817639
4.939723
4.939723
5.616902
5.616902
5.171683
5.171683
4.732062
4.732062
4.980208
4.980208
4.330922
4.330922
4.662671
4.662671
4.588955
4.588955
4.271418
4.271418
4.433987
4.433987
5.064576
5.064576
5.638559
5.638559
5.558894
5.558894
4.638757
4.638757
5.133075
5.133075
5.866729
5.866729
5.632756
5.632756
5.282256
5.282256
6.286744
6.286744
4.743420
4.743420
5.397409
5.397409
5.391606
5.391606
4.082427
4.082427
4.597823
4.597823
5.081112
5.081112
5.045610
5.045610
6.044295
6.044295
4.844466
4.844466
5.177781
5.177781
5.944708
5.944708
4.461241
4.461241
4.779077
4.779077
4.062537
4.062537
4.642495
4.642495
5.879544
5.879544
6.061712
6.061712
4.976035
4.976035
4.919683
4.919683
4.016175
4.016175
3.951010
3.951010
6.648236
6.648236
4.569420
4.569420
5.497394
5.497394
5.615682
5.615682
4.464840
4.464840
5.051364
5.051364
3.683216
3.683216
4.368989
4.368989
5.197715
5.197715
4.697200
4.697200
6.211699
6.211699
5.325495
5.325495
4.258611
4.258611
4.549845
4.549845
4.201134
4.201134
4.506804
4.506804
4.449327
4.449327
4.338950
4.338950
4.751385
4.751385
4.385783
4.385783
4.292297
4.292297
5.814341
5.814341
5.355252
5.355252
5.556792
5.556792
4.679315
4.679315
4.939860
4.939860
4.787369
4.787369
4.098336
4.098336
4.206390
4.206390
4.499922
4.499922
4.337151
4.337151
4.577186
4.577186
4.478191
4.478191
5.767248
5.767248
5.908289
5.908289
5.305579
5.305579
6.108174
6.108174
6.279566
6.279566
5.406470
5.406470
5.956979
5.956979
5.255275
5.255275
6.786263
6.786263
4.682867
4.682867
3.496722
3.496722
5.340759
5.340759
5.204068
5.204068
5.861961
5.861961
4.265261
4.265261
4.025226
4.025226
4.272564
4.272564
5.559493
5.559493
5.808790
5.808790
5.119580
5.119580
4.867587
4.867587
5.166216
5.166216
4.174679
4.174679
4.664925
4.664925
5.431635
5.431635
4.930345
4.930345
4.287771
4.287771
5.204549
5.204549
4.316537
4.316537
5.052222
5.052222
5.849827
5.849827
5.697500
5.697500
6.727370
6.727370
3.890135
3.890135
5.173117
5.173117
5.655690
5.655690
3.642180
3.642180
5.407734
5.407734
4.981333
4.981333
5.409309
5.409309
5.023482
5.023482
5.465480
5.465480
4.814678
4.814678
4.870849
4.870849
5.107041
5.107041
5.603886
5.603886
5.907374
5.907374
6.282076
6.282076
5.226072
5.226072
5.904262
5.904262
6.484665
6.484665
4.362352
4.362352
4.221037
4.221037
5.317457
5.317457
4.641192
4.641192
5.596297
5.596297
4.051275
4.051275
5.505284
5.505284
5.652475
5.652475
5.056682
5.056682
5.028861
5.028861
4.580259
4.580259
5.864506
5.864506
5.178540
5.178540
4.717897
4.717897
5.866994
5.866994
4.128344
4.128344
4.816798
4.816798
4.342863
4.342863
4.635297
4.635297
5.334384
5.334384
5.310459
5.310459
4.864184
4.864184
5.539346
5.539346
5.456746
5.456746
4.902060
4.902060
4.432740
4.432740
4.795534
4.795534
4.719152
4.719152
4.612627
4.612627
4.180302
4.180302
4.658325
4.658325
5.311014
5.311014
4.588795
4.588795
4.224119
4.224119
4.154589
4.154589
4.380173
4.380173
5.368055
5.368055
4.586126
4.586126
4.871420
4.871420
5.543424