# vtk DataFile Version 3.0
vtk output
ASCII
DATASET POLYDATA
POINTS 445 float
24.1071 45.4002 -17.891 24.1071 42.8815 -17.1312 24.9107 42.7137 -18.3249 
23.7054 46.0713 -13.1165 24.5089 43.7202 -11.1631 23.3036 43.6084 -11.9589 
22.0982 43.6084 -11.9589 21.6964 46.1272 -12.7186 20.4911 46.1831 -12.3207 
19.6875 43.6643 -11.561 18.4821 46.239 -11.9228 18.0804 43.7202 -11.1631 
16.0714 46.4068 -10.7292 14.4643 46.4068 -10.7292 24.5089 40.2508 -17.1673 
24.1071 41.6221 -16.7514 26.9196 42.8815 -17.1312 26.9196 40.2508 -17.1673 
27.3214 41.2014 -10.4034 23.3036 41.0896 -11.1991 28.125 43.6643 -11.561 
28.9286 41.2014 -10.4034 26.9196 43.7202 -11.1631 20.8929 42.2931 -11.9769 
25.7143 41.2014 -10.4034 16.4732 43.7202 -11.1631 14.4643 43.8321 -10.3674 
13.058 42.4888 -10.5843 21.2946 42.7963 -8.396 19.6875 42.7963 -8.396 
18.4821 44.2794 -7.18436 16.875 44.2235 -7.58223 14.8661 44.1676 -7.98011 
13.2589 44.2235 -7.58223 26.5179 37.6761 -16.8054 25.7143 37.7321 -16.4075 
24.1071 37.6761 -16.8054 28.7277 41.3704 -18.5418 28.5268 37.5084 -17.999 
28.9286 38.5708 -10.4394 23.3036 39.6625 -12.0129 25.7143 39.5506 -12.8087 
27.5223 39.8023 -11.0182 19.6875 39.8302 -10.8193 18.0804 41.0896 -11.1991 
15.2679 41.2014 -10.4034 16.0714 39.8861 -10.4214 13.2589 41.1455 -10.8013 
23.7054 40.2216 -8.03415 18.0804 40.3894 -6.84052 13.058 40.4174 -6.64158 
21.6964 40.2216 -8.03415 20.0893 41.5929 -7.61826 16.4732 40.3335 -7.23839 
15.2679 41.7047 -6.82251 28.125 34.8778 -18.0351 26.1161 35.0455 -16.8414 
25.7143 36.3608 -16.8234 24.1071 35.0455 -16.8414 29.1295 37.2835 -10.2585 
23.3036 35.8284 -11.2712 30.7366 39.4668 -13.4055 30.1339 35.7725 -11.6691 
27.5223 37.1157 -11.4521 24.308 37.0598 -11.85 19.2857 38.3472 -12.0309 
17.6786 39.7184 -11.615 21.6964 38.4031 -11.633 14.4643 38.3472 -12.0309 
16.0714 38.5149 -10.8373 13.6607 38.4031 -11.633 26.9196 37.591 -8.07017 
23.3036 38.9063 -8.05216 21.2946 38.9063 -8.05216 19.6875 39.0182 -7.25641 
18.4821 39.0182 -7.25641 16.4732 39.2978 -5.26703 14.8661 39.2978 -5.26703 
13.2589 39.13 -6.46066 26.1161 33.6184 -17.6552 28.7277 33.6463 -17.4563 
25.7143 33.7861 -16.4616 23.7054 33.7302 -16.8595 28.7277 34.5969 -10.6924 
23.3036 33.1418 -11.7051 30.1339 33.1418 -11.7051 26.9196 32.9741 -12.8987 
24.5089 33.03 -12.5008 28.125 34.9604 -8.10619 26.7188 34.9884 -7.90726 
28.5268 32.3031 -17.6732 26.1161 32.3031 -17.6732 24.9107 30.0639 -14.9241 
28.7277 31.9663 -10.7284 23.3036 31.0437 -17.2934 22.9018 31.8265 -11.7231 
21.2946 30.6231 -10.9454 29.933 31.9663 -10.7284 27.3214 30.5112 -11.7411 
24.5089 32.1061 -9.73372 28.5268 31.0145 -8.16023 27.1205 32.3018 -8.34116 
28.3259 32.3577 -7.94328 27.3214 33.6451 -8.12421 26.1161 28.7486 -14.9421 
24.9107 28.7486 -14.9421 27.5223 29.2798 -11.1623 24.5089 27.8247 -12.175 
28.3259 29.4475 -9.96869 22.9018 29.2518 -11.3613 21.4955 29.3357 -10.7644 
29.3304 28.272 -8.99201 28.125 29.6992 -8.17825 27.1205 29.7271 -7.97931 
26.5179 26.1739 -14.5803 24.5089 26.1739 -14.5803 29.1295 26.761 -10.4026 
27.1205 26.6492 -11.1983 22.9018 25.4177 -10.6195 24.5089 25.3059 -11.4153 
28.125 25.7532 -8.23228 27.3214 25.8092 -7.83441 27.3214 24.1024 -10.6375 
24.9107 23.9906 -11.4333 22.5 24.2143 -9.8418 28.9286 22.899 -9.85981 
22.0982 22.843 -10.2577 28.125 24.4379 -8.2503 26.9196 24.4379 -8.2503 
26.9196 21.4718 -10.6736 25.7143 20.0447 -11.4873 23.3036 21.5277 -10.2757 
28.5268 20.2124 -10.2937 21.2946 20.2683 -9.89584 27.7232 20.492 -8.30433 
26.5179 20.5479 -7.90646 27.3214 17.5259 -10.7276 25.7143 18.7294 -11.5054 
24.1071 18.8971 -10.3117 20.8929 17.6377 -9.93186 27.7232 17.6377 -9.93186 
20.0893 17.6936 -9.53399 26.9196 17.9173 -7.94248 21.6964 17.9173 -7.94248 
24.5089 19.2885 -7.52659 24.9107 20.5479 -7.90646 26.9196 15.0071 -9.96789 
25.7143 14.8953 -10.7636 23.3036 15.0071 -9.96789 22.0982 15.063 -9.57001 
19.8884 16.3504 -9.75093 18.8839 15.1749 -8.77426 26.1161 15.3985 -7.18276 
20.0893 15.3985 -7.18276 20.0893 17.9173 -7.94248 18.4821 15.3426 -7.58063 
24.9107 15.3985 -7.18276 26.1161 14.7834 -11.5594 25.3125 12.3765 -10.0039 
23.3036 12.3206 -10.4018 22.0982 12.3765 -10.0039 19.6875 12.4324 -9.60604 
18.8839 12.5442 -8.81028 25.9152 13.9434 -8.19546 24.9107 12.7679 -7.21878 
20.8929 12.9357 -6.02516 20.8929 15.5104 -6.38701 18.4821 12.9357 -6.02516 
22.9018 12.9357 -6.02516 23.3036 15.5104 -6.38701 19.2857 12.9916 -5.62728 
24.5089 12.2647 -10.7997 22.9018 11.1171 -9.62405 21.2946 9.80179 -9.64206 
19.6875 9.96954 -8.44843 18.4821 9.96954 -8.44843 23.3036 10.305 -6.06118 
17.6786 10.6965 -3.27605 16.0714 10.4169 -5.26543 16.0714 12.9916 -5.62728 
14.8661 12.9357 -6.02516 14.8661 10.361 -5.6633 22.0982 10.4728 -4.86755 
20.0893 10.6965 -3.27605 22.0982 35.7165 -12.0669 19.2857 35.8284 -11.2712 
17.4777 37.1716 -11.0542 16.0714 37.1996 -10.8553 21.6964 33.2537 -10.9093 
19.2857 33.3096 -10.5115 18.8839 33.3096 -10.5115 16.4732 33.0859 -12.103 
20.0893 36.3316 -7.69031 19.0848 35.212 -6.31576 19.6875 33.7569 -7.32846 
18.8839 33.9247 -6.13483 24.9107 23.1226 -8.26831 23.3036 21.8073 -8.28632 
21.2946 20.492 -8.30433 23.5045 19.2606 -7.72553 24.308 37.5631 -8.26911 
24.9107 35.0163 -7.70832 16.0714 36.779 -4.5073 23.3036 36.2757 -8.08818 
21.6964 36.3316 -7.69031 14.8661 36.7231 -4.90518 25.3125 31.0145 -8.16023 
24.9107 33.701 -7.72633 23.3036 33.6451 -8.12421 20.8929 33.7569 -7.32846 
16.875 33.9806 -5.73696 25.3125 29.6992 -8.17825 25.3125 27.0686 -8.21427 
21.2946 42.9933 -16.3355 21.2946 45.5121 -17.0952 20.0893 45.568 -16.6973 
20.0893 42.8815 -17.1312 18.4821 42.8255 -17.5291 18.683 46.6876 -18.0719 
21.2946 40.4186 -15.9736 19.6875 40.3068 -16.7694 18.4821 41.5102 -17.5471 
21.2946 38.9355 -17.1853 20.4911 38.9355 -17.1853 14.4643 35.7165 -12.0669 
14.0625 35.6606 -12.4648 14.8661 32.9741 -12.8987 14.8661 32.6945 -14.8881 
15.2679 30.0639 -14.9241 16.875 30.3435 -12.9347 15.6696 30.2875 -13.3326 
18.2813 31.9663 -10.7284 19.6875 30.7908 -9.75173 18.4821 28.0484 -10.5835 
17.0759 29.168 -11.9581 19.6875 29.5314 -9.37187 20.0893 29.6992 -8.17825 
21.4955 26.761 -10.4026 18.0804 26.8449 -9.80577 16.875 25.3618 -11.0174 
19.2857 26.8449 -9.80577 21.2946 27.0686 -8.21427 20.0893 27.0686 -8.21427 
16.875 22.899 -9.85981 15.2679 25.3618 -11.0174 14.8661 22.843 -10.2577 
18.0804 22.9549 -9.46194 20.0893 24.2702 -9.44392 21.2946 23.1785 -7.87043 
20.0893 23.1785 -7.87043 18.0804 24.4379 -8.2503 14.8661 20.3243 -9.49796 
13.6607 22.899 -9.85981 13.6607 20.3243 -9.49796 20.0893 20.3802 -9.10008 
16.4732 20.3802 -9.10008 18.0804 20.4361 -8.70221 17.2768 23.1226 -8.26831 
16.875 20.492 -8.30433 15.6696 20.492 -8.30433 20.0893 20.5479 -7.90646 
17.6786 20.5479 -7.90646 18.0804 47.9749 -18.2528 17.2768 48.0868 -17.4571 
17.2768 46.6596 -18.2708 15.6696 48.1427 -17.0592 15.2679 46.7715 -17.4751 
19.6875 48.0868 -17.4571 13.058 47.079 -15.2868 13.2589 48.3664 -15.4677 
14.4643 47.6102 -11.507 12.8571 49.0374 -10.6932 12.4554 46.4627 -10.3313 
12.0536 46.6863 -8.73983 12.2545 47.8619 -9.71651 12.8571 49.5406 -7.11231 
11.25 49.7084 -5.91868 10.0446 49.6525 -6.31656 17.2768 42.9933 -16.3355 
15.2679 42.8815 -17.1312 13.058 44.4484 -15.3228 12.2545 44.6721 -13.7313 
10.4464 45.371 -8.75785 12.8571 46.9659 -6.75046 11.25 47.1337 -5.55683 
9.64286 46.9659 -6.75046 16.875 41.4543 -17.945 14.6652 41.65 -16.5524 
13.2589 40.5863 -14.78 12.0536 44.2794 -7.18436 9.24108 44.3353 -6.78648 
18.4821 37.5084 -17.999 17.2768 39.0474 -16.3895 14.2634 39.1312 -15.7927 
13.6607 39.271 -14.798 18.0804 34.9896 -17.2393 17.2768 35.0455 -16.8414 
14.6652 36.5565 -15.4309 14.0625 36.6963 -14.4362 17.2768 33.7861 -16.4616 
17.6786 32.4708 -16.4796 18.4821 29.8402 -16.5156 17.2768 29.8402 -16.5156 
18.0804 29.7284 -17.3114 20.8929 46.0445 -22.6475 23.7054 47.4158 -22.2316 
22.9018 46.0445 -22.6475 20.8929 47.3598 -22.6295 19.6875 47.4717 -21.8337 
20.0893 44.897 -21.4719 24.5089 46.1005 -22.2496 19.0848 46.2962 -20.857 
24.9107 47.5276 -21.4358 25.7143 47.919 -18.6507 25.3125 45.3443 -18.2888 
23.7054 47.7513 -19.8443 20.8929 47.9749 -18.2528 26.1161 46.6596 -18.2708 
21.2946 43.5817 -21.4899 22.9018 43.5817 -21.4899 20.4911 42.3223 -21.11 
23.3036 41.0629 -20.7301 22.2991 41.0908 -20.5312 20.8929 35.0455 -16.8414 
20.0893 36.3608 -16.8234 22.0982 33.5065 -18.451 20.4911 33.7302 -16.8595 
21.2946 29.8402 -16.5156 20.0893 29.8402 -16.5156 22.9018 29.6165 -18.1071 
21.2946 29.7284 -17.3114 19.2857 29.6165 -18.1071 31.7411 46.8566 -26.2103 
29.7321 47.248 -23.4252 33.5491 45.8488 -24.04 27.7232 47.3039 -23.0273 
26.9196 47.1921 -23.8231 33.3482 47.4717 -21.8337 31.3393 47.6394 -20.6401 
30.5357 47.4158 -22.2316 27.7232 47.4717 -21.8337 27.3214 47.4717 -21.8337 
31.3393 48.0309 -17.8549 33.75 45.1207 -19.8803 29.5313 46.7994 -17.2761 
29.7321 48.0868 -17.4571 28.125 47.8072 -19.4464 28.3259 46.5198 -19.2655 
26.5179 47.9749 -18.2528 31.7411 45.4562 -17.4931 31.7411 44.3378 -25.4506 
29.3304 44.7292 -22.6655 33.75 44.4496 -24.6549 27.7232 44.7851 -22.2676 
26.5179 44.6733 -23.0634 24.5089 44.7851 -22.2676 34.5536 42.3223 -21.11 
34.5536 42.6578 -18.7227 30.1339 42.8255 -17.5291 28.125 42.7696 -17.927 
31.942 44.2247 -16.9143 34.1518 42.6578 -18.7227 30.1339 44.5882 -14.3281 
34.1518 42.2104 -21.9058 30.9375 42.2104 -21.9058 29.7321 42.1545 -22.3036 
26.5179 42.1545 -22.3036 28.125 42.2104 -21.9058 25.3125 42.2104 -21.9058 
34.7545 40.979 -21.327 35.3571 40.0831 -18.3609 33.75 40.2508 -17.1673 
31.7411 40.139 -17.963 29.5313 41.4264 -18.1439 31.7411 40.81 -13.1885 
30.5357 42.0135 -13.9663 30.9375 43.3288 -13.9482 30.1339 39.6357 -21.5439 
28.5268 39.6357 -21.5439 27.3214 38.3204 -21.5619 25.1116 38.3484 -21.363 
34.5536 38.4323 -20.7662 33.75 38.4323 -20.7662 23.3036 38.4882 -20.3683 
31.3393 39.7476 -20.7481 35.7589 37.5643 -17.6012 32.9464 37.5643 -17.6012 
32.5446 38.8237 -17.981 30.5357 38.8237 -17.981 32.9464 38.1235 -13.6224 
32.9464 40.6982 -13.9843 31.7411 39.5506 -12.8087 30.1339 35.8017 -20.8022 
28.5268 35.7457 -21.2001 26.1161 35.7457 -21.2001 25.3125 35.8017 -20.8022 
[...]
POINT_DATA 445
SCALARS Label float
LOOKUP_TABLE default
11 11 11 1 1 1 3 1 1 
1 1 1 1 9 11 11 12 12 
1 1 1 1 1 3 1 8 8 
9 1 1 1 1 1 9 12 11 
11 12 12 1 3 1 1 1 3 
8 8 9 1 1 1 1 1 1 
1 12 12 12 11 1 3 12 1 
1 3 8 8 3 8 8 9 1 
1 1 1 1 4 4 1 12 12 
12 11 1 1 1 1 1 1 1 
12 12 1 1 11 1 8 1 1 
3 1 1 1 1 1 1 1 1 
1 1 8 1 1 1 1 1 1 
1 1 1 1 1 1 1 1 1 
1 1 1 1 1 1 1 1 1 
1 1 1 1 1 1 1 1 3 
1 1 1 1 1 1 1 1 1 
3 1 1 1 1 1 1 1 1 
1 1 1 1 3 1 1 1 1 
1 1 1 1 1 1 1 1 1 
1 1 1 1 8 8 8 8 8 
8 8 8 3 4 3 4 3 3 
8 3 4 4 4 4 4 4 4 
4 4 4 4 4 4 11 11 9 
9 9 9 11 9 9 11 11 8 
9 9 8 9 8 8 8 8 8 
8 8 8 8 8 8 8 8 8 
8 8 8 8 8 8 8 8 8 
8 8 8 8 8 8 8 8 8 
8 9 9 9 9 9 11 9 9 
9 9 9 9 9 9 9 9 9 
9 9 9 9 9 9 9 9 9 
9 9 9 9 9 9 9 9 9 
9 9 9 9 11 9 11 11 13 
11 11 11 11 12 11 13 11 11 
11 11 12 11 11 13 13 13 11 
11 11 11 11 11 12 11 11 12 
12 12 12 12 12 12 12 12 12 
12 12 12 12 12 12 12 12 12 
12 12 12 12 12 12 12 12 12 
12 12 12 12 12 12 12 13 12 
12 12 12 12 12 12 12 12 12 
12 12 12 12 12 12 12 12 12 
12 12 12 12 12 12 12 12 12 
12 12 12 12 12 12 12 12 12 
12 12 12 12 12 12 12 12 12 
12 12 12 12 12 12 12 12 12 
12 12 12 12 12 12 12 12 12 
12 12 12 12 12 12 12 12 12 
12 12 12 13 
